============================== echo of input deck ==============================
start be_ccpvtz_ccsd_4_00au

memory stack 100 mb heap 100 mb global 200 mb noverify

echo

geometry units bohr
symmetry c1
H     0.00 0.00 0.00
H     4.00 0.0 0.0
end

basis
 * library cc-pvtz
end

scf
thresh 1.0e-11
tol2e 1.0e-12
singlet
rhf
maxiter 200
end

tce
ccsd
2eorb
2emet 13
tilesize 8
thresh 1.0d-8
end

#set tce:print_integrals T
#set tce:qorb  4
#set tce:qela  2
#set tce:qelb  2

#set tce:qducc T
#set tce:nactv 5

task tce energy
================================================================================

 Output coordinates in a.u. (scale by  1.000000000 to convert to a.u.)

  No.       Tag          Charge          X              Y              Z
 ---- ---------------- ---------- -------------- -------------- --------------
    1 H                    1.0000    -2.00000000     0.00000000     0.00000000
    2 H                    1.0000     2.00000000     0.00000000     0.00000000

         Total SCF energy =     -0.910294519188

 Vector    1  Occ=2.000000D+00  E=-3.788329D-01

 Vector    2  Occ=0.000000D+00  E=-5.462859D-02

 Vector    3  Occ=0.000000D+00  E= 3.692033D-01

 Vector    4  Occ=0.000000D+00  E= 3.811757D-01

 Vector    5  Occ=0.000000D+00  E= 6.443428D-01

 Vector    6  Occ=0.000000D+00  E= 7.090754D-01

 Vector    7  Occ=0.000000D+00  E= 7.090754D-01

 Vector    8  Occ=0.000000D+00  E= 8.255413D-01

 Vector    9  Occ=0.000000D+00  E= 8.255413D-01

 Vector   10  Occ=0.000000D+00  E= 1.091605D+00

 Vector   11  Occ=0.000000D+00  E= 1.684969D+00

       Multipole analysis of the density wrt the origin
       ------------------------------------------------

     L   x y z        total         open         nuclear
     -   - - -        -----         ----         -------
     0   0 0 0     -0.000000      0.000000      2.000000

     1   1 0 0     -0.000000      0.000000      0.000000
     1   0 1 0     -0.000000      0.000000      0.000000
     1   0 0 1     -0.000000      0.000000      0.000000

     2   2 0 0     -0.843098      0.000000      8.000000
     2   1 1 0      0.000000      0.000000      0.000000
     2   1 0 1      0.000000      0.000000      0.000000
     2   0 2 0     -2.672549      0.000000      0.000000
     2   0 1 1     -0.000000      0.000000      0.000000

 CCSD total energy / hartree       =        -1.014872149220753
 Total times  cpu:        1.4s     wall:        1.4s
