============================== echo of input deck ==============================
title "Li2-REMOVE"
echo
start Li2-REMOVE

memory total 24 gb

geometry  units angstrom
symmetry c1
Li  0    0    0
Li  0    0    6.6825
end

basis spherical
   * library cc-pvtz
end

scf
thresh 1.0e-10
tol2e 1.0e-10
rhf
singlet
maxiter 200
end

tce
   ccsd
   maxiter 200
   thresh 1.e-6
   2eorb
   2emet 13
   tilesize 5
   freeze virtual 50
end

#set tce:qducc T
#set tce:nactv 7
set tce:printtol 0.001

task tce energy

================================================================================

 Output coordinates in angstroms (scale by  1.889725989 to convert to a.u.)

  No.       Tag          Charge          X              Y              Z
 ---- ---------------- ---------- -------------- -------------- --------------
    1 Li                   3.0000     0.00000000     0.00000000    -3.34125000
    2 Li                   3.0000     0.00000000     0.00000000     3.34125000

         Total SCF energy =    -14.805363099760

 Vector    2  Occ=2.000000D+00  E=-2.511875D+00

 Vector    3  Occ=2.000000D+00  E=-1.317835D-01

 Vector    4  Occ=0.000000D+00  E=-4.250611D-02

 Vector    5  Occ=0.000000D+00  E= 2.547372D-02

 Vector    6  Occ=0.000000D+00  E= 2.554654D-02

 Vector    7  Occ=0.000000D+00  E= 2.554654D-02

 Vector    8  Occ=0.000000D+00  E= 3.677140D-02

 Vector    9  Occ=0.000000D+00  E= 3.677140D-02

 Vector   10  Occ=0.000000D+00  E= 4.593850D-02

 Vector   11  Occ=0.000000D+00  E= 1.166329D-01

 Vector   12  Occ=0.000000D+00  E= 1.194946D-01

 Vector   13  Occ=0.000000D+00  E= 1.194946D-01

 Vector   14  Occ=0.000000D+00  E= 1.229019D-01

 Vector   15  Occ=0.000000D+00  E= 1.239031D-01

 Vector   16  Occ=0.000000D+00  E= 1.239031D-01

 Vector   17  Occ=0.000000D+00  E= 1.471846D-01

 Vector   18  Occ=0.000000D+00  E= 1.702387D-01

 Vector   19  Occ=0.000000D+00  E= 2.065071D-01

 Vector   20  Occ=0.000000D+00  E= 2.158438D-01

 Vector   21  Occ=0.000000D+00  E= 2.158438D-01

 Vector   22  Occ=0.000000D+00  E= 2.213678D-01

 Vector   23  Occ=0.000000D+00  E= 2.213678D-01

 Vector   24  Occ=0.000000D+00  E= 2.235987D-01

 Vector   25  Occ=0.000000D+00  E= 2.235987D-01

 Vector   26  Occ=0.000000D+00  E= 2.367597D-01

 Vector   27  Occ=0.000000D+00  E= 2.367597D-01

 Vector   28  Occ=0.000000D+00  E= 2.780213D-01

 Vector   29  Occ=0.000000D+00  E= 4.404095D-01

 Vector   30  Occ=0.000000D+00  E= 4.405279D-01

 Vector   31  Occ=0.000000D+00  E= 4.405279D-01

 Vector   32  Occ=0.000000D+00  E= 4.451830D-01

 Vector   33  Occ=0.000000D+00  E= 4.451830D-01

 Vector   34  Occ=0.000000D+00  E= 4.550773D-01

 Vector   35  Occ=0.000000D+00  E= 6.987720D-01

       Multipole analysis of the density wrt the origin
       ------------------------------------------------

     L   x y z        total         open         nuclear
     -   - - -        -----         ----         -------
     0   0 0 0     -0.000000      0.000000      6.000000

     1   1 0 0     -0.000000      0.000000      0.000000
     1   0 1 0     -0.000000      0.000000      0.000000
     1   0 0 1     -0.000000      0.000000      0.000000

     2   2 0 0    -15.403437      0.000000      0.000000
     2   1 1 0      0.000000      0.000000      0.000000
     2   1 0 1      0.000000      0.000000      0.000000
     2   0 2 0    -15.403437      0.000000      0.000000
     2   0 1 1     -0.000000      0.000000      0.000000

 CCSD total energy / hartree       =       -14.859585168910980
 Total times  cpu:        2.4s     wall:        2.5s
