============================== echo of input deck ==============================
title "Li2-REMOVE"
echo
start Li2-REMOVE

memory total 24 gb

geometry  units angstrom
symmetry c1
Li  0    0    0
Li  0    0    3.2076
end

basis spherical
   * library cc-pvtz
end

scf
thresh 1.0e-10
tol2e 1.0e-10
rhf
singlet
maxiter 200
end

tce
   ccsd
   maxiter 200
   thresh 1.e-6
   2eorb
   2emet 13
   tilesize 5
   freeze virtual 50
end

#set tce:qducc T
#set tce:nactv 7
set tce:printtol 0.001

task tce energy

================================================================================

 Output coordinates in angstroms (scale by  1.889725989 to convert to a.u.)

  No.       Tag          Charge          X              Y              Z
 ---- ---------------- ---------- -------------- -------------- --------------
    1 Li                   3.0000     0.00000000     0.00000000    -1.60380000
    2 Li                   3.0000     0.00000000     0.00000000     1.60380000

         Total SCF energy =    -14.867958471625

 Vector    2  Occ=2.000000D+00  E=-2.465323D+00

 Vector    3  Occ=2.000000D+00  E=-1.714830D-01

 Vector    4  Occ=0.000000D+00  E= 1.295018D-04

 Vector    5  Occ=0.000000D+00  E= 2.783109D-02

 Vector    6  Occ=0.000000D+00  E= 2.783109D-02

 Vector    7  Occ=0.000000D+00  E= 3.594640D-02

 Vector    8  Occ=0.000000D+00  E= 5.338049D-02

 Vector    9  Occ=0.000000D+00  E= 5.338049D-02

 Vector   10  Occ=0.000000D+00  E= 6.308972D-02

 Vector   11  Occ=0.000000D+00  E= 1.113586D-01

 Vector   12  Occ=0.000000D+00  E= 1.205310D-01

 Vector   13  Occ=0.000000D+00  E= 1.205310D-01

 Vector   14  Occ=0.000000D+00  E= 1.505943D-01

 Vector   15  Occ=0.000000D+00  E= 1.536408D-01

 Vector   16  Occ=0.000000D+00  E= 1.536408D-01

 Vector   17  Occ=0.000000D+00  E= 1.604671D-01

 Vector   18  Occ=0.000000D+00  E= 2.178894D-01

 Vector   19  Occ=0.000000D+00  E= 2.178894D-01

 Vector   20  Occ=0.000000D+00  E= 2.225421D-01

 Vector   21  Occ=0.000000D+00  E= 2.396789D-01

 Vector   22  Occ=0.000000D+00  E= 2.396789D-01

 Vector   23  Occ=0.000000D+00  E= 2.673074D-01

 Vector   24  Occ=0.000000D+00  E= 2.673074D-01

 Vector   25  Occ=0.000000D+00  E= 3.052319D-01

 Vector   26  Occ=0.000000D+00  E= 3.412209D-01

 Vector   27  Occ=0.000000D+00  E= 3.412209D-01

 Vector   28  Occ=0.000000D+00  E= 4.112922D-01

 Vector   29  Occ=0.000000D+00  E= 4.655578D-01

 Vector   30  Occ=0.000000D+00  E= 4.698237D-01

 Vector   31  Occ=0.000000D+00  E= 4.698237D-01

 Vector   32  Occ=0.000000D+00  E= 4.861354D-01

 Vector   33  Occ=0.000000D+00  E= 4.861354D-01

 Vector   34  Occ=0.000000D+00  E= 5.158764D-01

       Multipole analysis of the density wrt the origin
       ------------------------------------------------

     L   x y z        total         open         nuclear
     -   - - -        -----         ----         -------
     0   0 0 0     -0.000000      0.000000      6.000000

     1   1 0 0     -0.000000      0.000000      0.000000
     1   0 1 0      0.000000      0.000000      0.000000
     1   0 0 1      0.000000      0.000000      0.000000

     2   2 0 0    -13.003773      0.000000      0.000000
     2   1 1 0     -0.000000      0.000000      0.000000
     2   1 0 1      0.000000      0.000000      0.000000
     2   0 2 0    -13.003773      0.000000      0.000000
     2   0 1 1     -0.000000      0.000000      0.000000

 CCSD total energy / hartree       =       -14.877481966926835
 Total times  cpu:        2.7s     wall:        2.8s
