============================== echo of input deck ==============================
title "Li2-REMOVE"
echo
start Li2-REMOVE

memory total 24 gb

geometry  units angstrom
symmetry c1
Li  0    0    0
Li  0    0    5.346
end

basis spherical
   * library cc-pvtz
end

scf
thresh 1.0e-10
tol2e 1.0e-10
rhf
singlet
maxiter 200
end

tce
   ccsd
   maxiter 200
   thresh 1.e-6
   2eorb
   2emet 13
   tilesize 5
end

set tce:qducc T
set tce:nactv 7

task tce energy

================================================================================

 Output coordinates in angstroms (scale by  1.889725989 to convert to a.u.)

  No.       Tag          Charge          X              Y              Z
 ---- ---------------- ---------- -------------- -------------- --------------
    1 Li                   3.0000     0.00000000     0.00000000    -2.67300000
    2 Li                   3.0000     0.00000000     0.00000000     2.67300000

         Total SCF energy =    -14.824394032870

 Vector    2  Occ=2.000000D+00  E=-2.504393D+00

 Vector    3  Occ=2.000000D+00  E=-1.425191D-01

 Vector    4  Occ=0.000000D+00  E=-2.845883D-02

 Vector    5  Occ=0.000000D+00  E= 2.624154D-02

 Vector    6  Occ=0.000000D+00  E= 2.624154D-02

 Vector    7  Occ=0.000000D+00  E= 2.814835D-02

 Vector    8  Occ=0.000000D+00  E= 4.205197D-02

 Vector    9  Occ=0.000000D+00  E= 4.205197D-02

 Vector   10  Occ=0.000000D+00  E= 5.144842D-02

 Vector   11  Occ=0.000000D+00  E= 1.146991D-01

 Vector   12  Occ=0.000000D+00  E= 1.230127D-01

 Vector   13  Occ=0.000000D+00  E= 1.230127D-01

 Vector   14  Occ=0.000000D+00  E= 1.286617D-01

 Vector   15  Occ=0.000000D+00  E= 1.286617D-01

 Vector   16  Occ=0.000000D+00  E= 1.299157D-01

 Vector   17  Occ=0.000000D+00  E= 1.491315D-01

 Vector   18  Occ=0.000000D+00  E= 1.844039D-01

 Vector   19  Occ=0.000000D+00  E= 2.061971D-01

 Vector   20  Occ=0.000000D+00  E= 2.061971D-01

 Vector   21  Occ=0.000000D+00  E= 2.210390D-01

 Vector   22  Occ=0.000000D+00  E= 2.210390D-01

 Vector   23  Occ=0.000000D+00  E= 2.325128D-01

 Vector   24  Occ=0.000000D+00  E= 2.325128D-01

 Vector   25  Occ=0.000000D+00  E= 2.340772D-01

 Vector   26  Occ=0.000000D+00  E= 2.675556D-01

 Vector   27  Occ=0.000000D+00  E= 2.675556D-01

 Vector   28  Occ=0.000000D+00  E= 3.196378D-01

 Vector   29  Occ=0.000000D+00  E= 4.422381D-01

 Vector   30  Occ=0.000000D+00  E= 4.422381D-01

 Vector   31  Occ=0.000000D+00  E= 4.458576D-01

 Vector   32  Occ=0.000000D+00  E= 4.556480D-01

 Vector   33  Occ=0.000000D+00  E= 4.556480D-01

 Vector   34  Occ=0.000000D+00  E= 4.987703D-01

 Vector   35  Occ=0.000000D+00  E= 6.962445D-01

       Multipole analysis of the density wrt the origin
       ------------------------------------------------

     L   x y z        total         open         nuclear
     -   - - -        -----         ----         -------
     0   0 0 0     -0.000000      0.000000      6.000000

     1   1 0 0      0.000000      0.000000      0.000000
     1   0 1 0     -0.000000      0.000000      0.000000
     1   0 0 1     -0.000000      0.000000      0.000000

     2   2 0 0    -14.976960      0.000000      0.000000
     2   1 1 0      0.000000      0.000000      0.000000
     2   1 0 1      0.000000      0.000000      0.000000
     2   0 2 0    -14.976960      0.000000      0.000000
     2   0 1 1      0.000000      0.000000      0.000000

 CCSD total energy / hartree       =       -14.894860333197380
 Total times  cpu:      747.4s     wall:      752.2s
