============================== echo of input deck ==============================
start tce_hf_1.10016

echo
memory total 6 gb
print high

geometry units angstrom
symmetry c1
H  0.0000000  0.0000  1.10016
F  0.0000000  0.0000  0.00000
end

basis spherical
H library cc-pvdz
F library cc-pvdz
end

scf
thresh 1.0e-10
tol2e 1.0e-10
singlet
rhf
end

tce
2eorb
2emet 13
thresh 1.0d-8
ccsd
end

set tce:qducc T
set tce:nactv 5

task tce energy

================================================================================

 Output coordinates in angstroms (scale by  1.889725989 to convert to a.u.)

  No.       Tag          Charge          X              Y              Z
 ---- ---------------- ---------- -------------- -------------- --------------
    1 H                    1.0000     0.00000000     0.00000000     0.99014400
    2 F                    9.0000     0.00000000     0.00000000    -0.11001600

         Total SCF energy =    -99.987355839337

 Vector    1  Occ=2.000000D+00  E=-2.628006D+01

 Vector    2  Occ=2.000000D+00  E=-1.533620D+00

 Vector    3  Occ=2.000000D+00  E=-6.785423D-01

 Vector    4  Occ=2.000000D+00  E=-6.134177D-01

 Vector    5  Occ=2.000000D+00  E=-6.134177D-01

 Vector    6  Occ=0.000000D+00  E= 1.370715D-01

 Vector    7  Occ=0.000000D+00  E= 6.736110D-01

 Vector    8  Occ=0.000000D+00  E= 1.352834D+00

 Vector    9  Occ=0.000000D+00  E= 1.352834D+00

 Vector   10  Occ=0.000000D+00  E= 1.489251D+00

 Vector   11  Occ=0.000000D+00  E= 1.628343D+00

 Vector   12  Occ=0.000000D+00  E= 1.628343D+00

 Vector   13  Occ=0.000000D+00  E= 2.020975D+00

 Vector   14  Occ=0.000000D+00  E= 2.227032D+00

 Vector   15  Occ=0.000000D+00  E= 4.020327D+00

 Vector   16  Occ=0.000000D+00  E= 4.020327D+00

 Vector   17  Occ=0.000000D+00  E= 4.139359D+00

 Vector   18  Occ=0.000000D+00  E= 4.139359D+00

 Vector   19  Occ=0.000000D+00  E= 4.783778D+00

       Multipole analysis of the density wrt the origin
       ------------------------------------------------

     L   x y z        total         open         nuclear
     -   - - -        -----         ----         -------
     0   0 0 0     -0.000000      0.000000     10.000000

     1   1 0 0     -0.000000      0.000000      0.000000
     1   0 1 0     -0.000000      0.000000      0.000000
     1   0 0 1      0.908008      0.000000      0.000000

     2   2 0 0     -4.127477      0.000000      0.000000
     2   1 1 0     -0.000000      0.000000      0.000000
     2   1 0 1     -0.000000      0.000000      0.000000
     2   0 2 0     -4.127477      0.000000      0.000000
     2   0 1 1     -0.000000      0.000000      0.000000

 CCSD total energy / hartree       =      -100.203700170686815
 Total times  cpu:       12.4s     wall:       12.4s
