============================== echo of input deck ==============================
start tce_hf_2.0628

echo
memory total 6 gb
print high

geometry units angstrom
symmetry c1
H  0.0000000  0.0000  2.0628
F  0.0000000  0.0000  0.00000
end

basis spherical
H library cc-pvdz
F library cc-pvdz
end

scf
thresh 1.0e-10
tol2e 1.0e-10
singlet
rhf
end

tce
2eorb
2emet 13
thresh 1.0d-8
ccsd
end

set tce:qducc T
set tce:nactv 5

task tce energy

================================================================================

 Output coordinates in angstroms (scale by  1.889725989 to convert to a.u.)

  No.       Tag          Charge          X              Y              Z
 ---- ---------------- ---------- -------------- -------------- --------------
    1 H                    1.0000     0.00000000     0.00000000     1.85652000
    2 F                    9.0000     0.00000000     0.00000000    -0.20628000

         Total SCF energy =    -99.749011185506

 Vector    1  Occ=2.000000D+00  E=-2.626851D+01

 Vector    2  Occ=2.000000D+00  E=-1.458844D+00

 Vector    3  Occ=2.000000D+00  E=-5.782047D-01

 Vector    4  Occ=2.000000D+00  E=-5.782047D-01

 Vector    5  Occ=2.000000D+00  E=-4.710016D-01

 Vector    6  Occ=0.000000D+00  E=-9.964041D-02

 Vector    7  Occ=0.000000D+00  E= 5.721075D-01

 Vector    8  Occ=0.000000D+00  E= 1.245386D+00

 Vector    9  Occ=0.000000D+00  E= 1.348436D+00

 Vector   10  Occ=0.000000D+00  E= 1.348436D+00

 Vector   11  Occ=0.000000D+00  E= 1.508882D+00

 Vector   12  Occ=0.000000D+00  E= 1.508882D+00

 Vector   13  Occ=0.000000D+00  E= 1.682837D+00

 Vector   14  Occ=0.000000D+00  E= 2.002180D+00

 Vector   15  Occ=0.000000D+00  E= 4.045141D+00

 Vector   16  Occ=0.000000D+00  E= 4.045141D+00

 Vector   17  Occ=0.000000D+00  E= 4.045472D+00

 Vector   18  Occ=0.000000D+00  E= 4.057104D+00

 Vector   19  Occ=0.000000D+00  E= 4.057104D+00

       Multipole analysis of the density wrt the origin
       ------------------------------------------------

     L   x y z        total         open         nuclear
     -   - - -        -----         ----         -------
     0   0 0 0     -0.000000      0.000000     10.000000

     1   1 0 0     -0.000000      0.000000      0.000000
     1   0 1 0     -0.000000      0.000000      0.000000
     1   0 0 1      1.465436      0.000000      0.000000

     2   2 0 0     -4.528884      0.000000      0.000000
     2   1 1 0     -0.000000      0.000000      0.000000
     2   1 0 1     -0.000000      0.000000      0.000000
     2   0 2 0     -4.528884      0.000000      0.000000
     2   0 1 1      0.000000      0.000000      0.000000

 CCSD total energy / hartree       =      -100.033073114333533
 Total times  cpu:       11.2s     wall:       11.2s
