============================== echo of input deck ==============================
start tce_hf_0.73344

echo
memory total 6 gb
print high

geometry units angstrom
symmetry c1
H  0.0000000  0.0000  0.73344
F  0.0000000  0.0000  0.00000
end

basis spherical
H library cc-pvdz
F library cc-pvdz
end

scf
thresh 1.0e-10
tol2e 1.0e-10
singlet
rhf
end

tce
2eorb
2emet 13
thresh 1.0d-8
ccsd
end

set tce:qducc T
set tce:nactv 5

task tce energy

================================================================================

 Output coordinates in angstroms (scale by  1.889725989 to convert to a.u.)

  No.       Tag          Charge          X              Y              Z
 ---- ---------------- ---------- -------------- -------------- --------------
    1 H                    1.0000     0.00000000     0.00000000     0.66009600
    2 F                    9.0000     0.00000000     0.00000000    -0.07334400

         Total SCF energy =    -99.963421023996

 Vector    1  Occ=2.000000D+00  E=-2.627228D+01

 Vector    2  Occ=2.000000D+00  E=-1.669622D+00

 Vector    3  Occ=2.000000D+00  E=-8.225883D-01

 Vector    4  Occ=2.000000D+00  E=-6.501626D-01

 Vector    5  Occ=2.000000D+00  E=-6.501626D-01

 Vector    6  Occ=0.000000D+00  E= 2.148384D-01

 Vector    7  Occ=0.000000D+00  E= 1.040612D+00

 Vector    8  Occ=0.000000D+00  E= 1.366738D+00

 Vector    9  Occ=0.000000D+00  E= 1.427324D+00

 Vector   10  Occ=0.000000D+00  E= 1.427324D+00

 Vector   11  Occ=0.000000D+00  E= 1.643607D+00

 Vector   12  Occ=0.000000D+00  E= 1.643607D+00

 Vector   13  Occ=0.000000D+00  E= 2.124382D+00

 Vector   14  Occ=0.000000D+00  E= 3.159135D+00

 Vector   15  Occ=0.000000D+00  E= 3.983553D+00

 Vector   16  Occ=0.000000D+00  E= 3.983553D+00

 Vector   17  Occ=0.000000D+00  E= 4.490436D+00

 Vector   18  Occ=0.000000D+00  E= 4.490436D+00

 Vector   19  Occ=0.000000D+00  E= 5.320129D+00

       Multipole analysis of the density wrt the origin
       ------------------------------------------------

     L   x y z        total         open         nuclear
     -   - - -        -----         ----         -------
     0   0 0 0     -0.000000      0.000000     10.000000

     1   1 0 0     -0.000000      0.000000      0.000000
     1   0 1 0      0.000000      0.000000      0.000000
     1   0 0 1      0.625172      0.000000     -0.000000

     2   2 0 0     -3.873875      0.000000      0.000000
     2   1 1 0     -0.000000      0.000000      0.000000
     2   1 0 1     -0.000000      0.000000      0.000000
     2   0 2 0     -3.873875      0.000000      0.000000
     2   0 1 1      0.000000      0.000000      0.000000

 CCSD total energy / hartree       =      -100.164504295684281
 Total times  cpu:       10.9s     wall:       10.9s
