============================== echo of input deck ==============================
start tce_hf_1.55856

echo
memory total 6 gb
print high

geometry units angstrom
symmetry c1
H  0.0000000  0.0000  1.55856
F  0.0000000  0.0000  0.00000
end

basis spherical
H library cc-pvdz
F library cc-pvdz
end

scf
thresh 1.0e-10
tol2e 1.0e-10
singlet
rhf
end

tce
2eorb
2emet 13
thresh 1.0d-8
ccsd
end

set tce:qducc T
set tce:nactv 5

task tce energy

================================================================================

 Output coordinates in angstroms (scale by  1.889725989 to convert to a.u.)

  No.       Tag          Charge          X              Y              Z
 ---- ---------------- ---------- -------------- -------------- --------------
    1 H                    1.0000     0.00000000     0.00000000     1.40270400
    2 F                    9.0000     0.00000000     0.00000000    -0.15585600

         Total SCF energy =    -99.857272048032

 Vector    1  Occ=2.000000D+00  E=-2.627878D+01

 Vector    2  Occ=2.000000D+00  E=-1.480685D+00

 Vector    3  Occ=2.000000D+00  E=-5.920438D-01

 Vector    4  Occ=2.000000D+00  E=-5.920438D-01

 Vector    5  Occ=2.000000D+00  E=-5.523222D-01

 Vector    6  Occ=0.000000D+00  E= 1.033085D-03

 Vector    7  Occ=0.000000D+00  E= 5.738967D-01

 Vector    8  Occ=0.000000D+00  E= 1.317866D+00

 Vector    9  Occ=0.000000D+00  E= 1.317866D+00

 Vector   10  Occ=0.000000D+00  E= 1.412811D+00

 Vector   11  Occ=0.000000D+00  E= 1.587913D+00

 Vector   12  Occ=0.000000D+00  E= 1.587913D+00

 Vector   13  Occ=0.000000D+00  E= 1.646340D+00

 Vector   14  Occ=0.000000D+00  E= 2.289502D+00

 Vector   15  Occ=0.000000D+00  E= 4.036393D+00

 Vector   16  Occ=0.000000D+00  E= 4.036393D+00

 Vector   17  Occ=0.000000D+00  E= 4.043160D+00

 Vector   18  Occ=0.000000D+00  E= 4.043160D+00

 Vector   19  Occ=0.000000D+00  E= 4.169430D+00

       Multipole analysis of the density wrt the origin
       ------------------------------------------------

     L   x y z        total         open         nuclear
     -   - - -        -----         ----         -------
     0   0 0 0     -0.000000      0.000000     10.000000

     1   1 0 0     -0.000000      0.000000      0.000000
     1   0 1 0     -0.000000      0.000000      0.000000
     1   0 0 1      1.196266      0.000000      0.000000

     2   2 0 0     -4.366259      0.000000      0.000000
     2   1 1 0     -0.000000      0.000000      0.000000
     2   1 0 1      0.000000      0.000000      0.000000
     2   0 2 0     -4.366259      0.000000      0.000000
     2   0 1 1     -0.000000      0.000000      0.000000

 CCSD total energy / hartree       =      -100.098135274229122
 Total times  cpu:       11.3s     wall:       11.3s
