============================== echo of input deck ==============================
start tce_hf_1.19184

echo
memory total 6 gb
print high

geometry units angstrom
symmetry c1
H  0.0000000  0.0000  1.19184
F  0.0000000  0.0000  0.00000
end

basis spherical
H library cc-pvdz
F library cc-pvdz
end

scf
thresh 1.0e-10
tol2e 1.0e-10
singlet
rhf
end

tce
2eorb
2emet 13
thresh 1.0d-8
ccsd
end

set tce:qducc T
set tce:nactv 5

task tce energy

================================================================================

 Output coordinates in angstroms (scale by  1.889725989 to convert to a.u.)

  No.       Tag          Charge          X              Y              Z
 ---- ---------------- ---------- -------------- -------------- --------------
    1 H                    1.0000     0.00000000     0.00000000     1.07265600
    2 F                    9.0000     0.00000000     0.00000000    -0.11918400

         Total SCF energy =    -99.961898183648

 Vector    1  Occ=2.000000D+00  E=-2.628042D+01

 Vector    2  Occ=2.000000D+00  E=-1.517219D+00

 Vector    3  Occ=2.000000D+00  E=-6.480554D-01

 Vector    4  Occ=2.000000D+00  E=-6.075579D-01

 Vector    5  Occ=2.000000D+00  E=-6.075579D-01

 Vector    6  Occ=0.000000D+00  E= 1.093377D-01

 Vector    7  Occ=0.000000D+00  E= 6.332782D-01

 Vector    8  Occ=0.000000D+00  E= 1.332943D+00

 Vector    9  Occ=0.000000D+00  E= 1.332943D+00

 Vector   10  Occ=0.000000D+00  E= 1.528716D+00

 Vector   11  Occ=0.000000D+00  E= 1.632669D+00

 Vector   12  Occ=0.000000D+00  E= 1.632669D+00

 Vector   13  Occ=0.000000D+00  E= 1.863913D+00

 Vector   14  Occ=0.000000D+00  E= 2.247731D+00

 Vector   15  Occ=0.000000D+00  E= 4.026553D+00

 Vector   16  Occ=0.000000D+00  E= 4.026553D+00

 Vector   17  Occ=0.000000D+00  E= 4.095422D+00

 Vector   18  Occ=0.000000D+00  E= 4.095422D+00

 Vector   19  Occ=0.000000D+00  E= 4.639521D+00

       Multipole analysis of the density wrt the origin
       ------------------------------------------------

     L   x y z        total         open         nuclear
     -   - - -        -----         ----         -------
     0   0 0 0     -0.000000      0.000000     10.000000

     1   1 0 0      0.000000      0.000000      0.000000
     1   0 1 0      0.000000      0.000000      0.000000
     1   0 0 1      0.973606      0.000000     -0.000000

     2   2 0 0     -4.182638      0.000000      0.000000
     2   1 1 0     -0.000000      0.000000      0.000000
     2   1 0 1      0.000000      0.000000      0.000000
     2   0 2 0     -4.182638      0.000000      0.000000
     2   0 1 1      0.000000      0.000000      0.000000

 CCSD total energy / hartree       =      -100.182262259657819
 Total times  cpu:       11.0s     wall:       11.0s
