============================== echo of input deck ==============================
title "Li2-REMOVE"
echo
start Li2-REMOVE

memory total 24 gb

geometry  units angstrom
symmetry c1
Li  0    0    0
Li  0    0    2.1384
end

basis spherical
   * library cc-pvtz
end

scf
thresh 1.0e-10
tol2e 1.0e-10
rhf
singlet
maxiter 200
end

tce
   ccsd
   maxiter 200
   thresh 1.e-6
   2eorb
   2emet 13
   tilesize 5
   freeze virtual 56
end

#set tce:qducc T
#set tce:nactv 7
set tce:printtol 0.001

task tce energy

================================================================================

 Output coordinates in angstroms (scale by  1.889725989 to convert to a.u.)

  No.       Tag          Charge          X              Y              Z
 ---- ---------------- ---------- -------------- -------------- --------------
    1 Li                   3.0000     0.00000000     0.00000000    -1.06920000
    2 Li                   3.0000     0.00000000     0.00000000     1.06920000

         Total SCF energy =    -14.854303202202

 Vector    2  Occ=2.000000D+00  E=-2.453077D+00

 Vector    3  Occ=2.000000D+00  E=-1.922693D-01

 Vector    4  Occ=0.000000D+00  E= 1.101678D-02

 Vector    5  Occ=0.000000D+00  E= 2.447956D-02

 Vector    6  Occ=0.000000D+00  E= 2.447956D-02

 Vector    7  Occ=0.000000D+00  E= 4.105718D-02

 Vector    8  Occ=0.000000D+00  E= 5.761921D-02

 Vector    9  Occ=0.000000D+00  E= 5.761921D-02

 Vector   10  Occ=0.000000D+00  E= 6.670381D-02

 Vector   11  Occ=0.000000D+00  E= 1.080340D-01

 Vector   12  Occ=0.000000D+00  E= 1.084103D-01

 Vector   13  Occ=0.000000D+00  E= 1.084103D-01

 Vector   14  Occ=0.000000D+00  E= 1.438055D-01

 Vector   15  Occ=0.000000D+00  E= 1.626792D-01

 Vector   16  Occ=0.000000D+00  E= 1.705342D-01

 Vector   17  Occ=0.000000D+00  E= 1.705342D-01

 Vector   18  Occ=0.000000D+00  E= 2.163742D-01

 Vector   19  Occ=0.000000D+00  E= 2.163742D-01

 Vector   20  Occ=0.000000D+00  E= 2.612305D-01

 Vector   21  Occ=0.000000D+00  E= 2.701066D-01

 Vector   22  Occ=0.000000D+00  E= 2.701066D-01

 Vector   23  Occ=0.000000D+00  E= 2.891064D-01

 Vector   24  Occ=0.000000D+00  E= 2.891064D-01

 Vector   25  Occ=0.000000D+00  E= 3.227108D-01

 Vector   26  Occ=0.000000D+00  E= 3.623822D-01

 Vector   27  Occ=0.000000D+00  E= 3.623822D-01

 Vector   28  Occ=0.000000D+00  E= 3.985735D-01

 Vector   29  Occ=0.000000D+00  E= 4.539200D-01

 Vector   30  Occ=0.000000D+00  E= 4.539200D-01

 Vector   31  Occ=0.000000D+00  E= 4.654787D-01

 Vector   32  Occ=0.000000D+00  E= 4.682445D-01

 Vector   33  Occ=0.000000D+00  E= 4.682445D-01

 Vector   34  Occ=0.000000D+00  E= 6.461738D-01

       Multipole analysis of the density wrt the origin
       ------------------------------------------------

     L   x y z        total         open         nuclear
     -   - - -        -----         ----         -------
     0   0 0 0     -0.000000      0.000000      6.000000

     1   1 0 0     -0.000000      0.000000      0.000000
     1   0 1 0     -0.000000      0.000000      0.000000
     1   0 0 1      0.000000      0.000000      0.000000

     2   2 0 0    -11.920418      0.000000      0.000000
     2   1 1 0      0.000000      0.000000      0.000000
     2   1 0 1      0.000000      0.000000      0.000000
     2   0 2 0    -11.920418      0.000000      0.000000
     2   0 1 1      0.000000      0.000000      0.000000

 CCSD total energy / hartree       =       -14.855200339541623
 Total times  cpu:        2.5s     wall:        2.6s
