============================== echo of input deck ==============================
title "Li2-REMOVE"
echo
start Li2-REMOVE

memory total 24 gb

geometry  units angstrom
symmetry c1
Li  0    0    0
Li  0    0    2.53935
end

basis spherical
   * library cc-pvtz
end

scf
thresh 1.0e-10
tol2e 1.0e-10
rhf
singlet
maxiter 200
end

tce
   ccsd
   maxiter 200
   thresh 1.e-6
   2eorb
   2emet 13
   tilesize 5
end

set tce:qducc T
set tce:nactv 4

task tce energy

================================================================================

 Output coordinates in angstroms (scale by  1.889725989 to convert to a.u.)

  No.       Tag          Charge          X              Y              Z
 ---- ---------------- ---------- -------------- -------------- --------------
    1 Li                   3.0000     0.00000000     0.00000000    -1.26967500
    2 Li                   3.0000     0.00000000     0.00000000     1.26967500

         Total SCF energy =    -14.869802213019

 Vector    2  Occ=2.000000D+00  E=-2.451015D+00

 Vector    3  Occ=2.000000D+00  E=-1.843644D-01

 Vector    4  Occ=0.000000D+00  E= 7.853829D-03

 Vector    5  Occ=0.000000D+00  E= 2.687850D-02

 Vector    6  Occ=0.000000D+00  E= 2.687850D-02

 Vector    7  Occ=0.000000D+00  E= 3.909647D-02

 Vector    8  Occ=0.000000D+00  E= 5.650821D-02

 Vector    9  Occ=0.000000D+00  E= 5.650821D-02

 Vector   10  Occ=0.000000D+00  E= 6.630671D-02

 Vector   11  Occ=0.000000D+00  E= 1.095869D-01

 Vector   12  Occ=0.000000D+00  E= 1.149682D-01

 Vector   13  Occ=0.000000D+00  E= 1.149682D-01

 Vector   14  Occ=0.000000D+00  E= 1.489543D-01

 Vector   15  Occ=0.000000D+00  E= 1.580751D-01

 Vector   16  Occ=0.000000D+00  E= 1.664936D-01

 Vector   17  Occ=0.000000D+00  E= 1.664936D-01

 Vector   18  Occ=0.000000D+00  E= 2.174158D-01

 Vector   19  Occ=0.000000D+00  E= 2.174158D-01

 Vector   20  Occ=0.000000D+00  E= 2.505259D-01

 Vector   21  Occ=0.000000D+00  E= 2.593475D-01

 Vector   22  Occ=0.000000D+00  E= 2.593475D-01

 Vector   23  Occ=0.000000D+00  E= 2.815104D-01

 Vector   24  Occ=0.000000D+00  E= 2.815104D-01

 Vector   25  Occ=0.000000D+00  E= 3.141604D-01

 Vector   26  Occ=0.000000D+00  E= 3.620964D-01

 Vector   27  Occ=0.000000D+00  E= 3.620964D-01

 Vector   28  Occ=0.000000D+00  E= 3.924771D-01

 Vector   29  Occ=0.000000D+00  E= 4.677068D-01

 Vector   30  Occ=0.000000D+00  E= 4.677068D-01

 Vector   31  Occ=0.000000D+00  E= 4.759803D-01

 Vector   32  Occ=0.000000D+00  E= 4.759803D-01

 Vector   33  Occ=0.000000D+00  E= 5.065348D-01

       Multipole analysis of the density wrt the origin
       ------------------------------------------------

     L   x y z        total         open         nuclear
     -   - - -        -----         ----         -------
     0   0 0 0     -0.000000      0.000000      6.000000

     1   1 0 0      0.000000      0.000000      0.000000
     1   0 1 0      0.000000      0.000000      0.000000
     1   0 0 1      0.000000      0.000000      0.000000

     2   2 0 0    -12.197319      0.000000      0.000000
     2   1 1 0      0.000000      0.000000      0.000000
     2   1 0 1      0.000000      0.000000      0.000000
     2   0 2 0    -12.197319      0.000000      0.000000
     2   0 1 1     -0.000000      0.000000      0.000000

 CCSD total energy / hartree       =       -14.930187980823844
 Total times  cpu:      741.9s     wall:      746.4s
