============================== echo of input deck ==============================
title "Li2-REMOVE"
echo
start Li2-REMOVE

memory total 24 gb

geometry  units angstrom
symmetry c1
Li  0    0    0
Li  0    0    2.9403
end

basis spherical
   * library cc-pvtz
end

scf
thresh 1.0e-10
tol2e 1.0e-10
rhf
singlet
maxiter 200
end

tce
   ccsd
   maxiter 200
   thresh 1.e-6
   2eorb
   2emet 13
   tilesize 5
end

set tce:qducc T
set tce:nactv 1

task tce energy

================================================================================

 Output coordinates in angstroms (scale by  1.889725989 to convert to a.u.)

  No.       Tag          Charge          X              Y              Z
 ---- ---------------- ---------- -------------- -------------- --------------
    1 Li                   3.0000     0.00000000     0.00000000    -1.47015000
    2 Li                   3.0000     0.00000000     0.00000000     1.47015000

         Total SCF energy =    -14.871089988482

 Vector    2  Occ=2.000000D+00  E=-2.458605D+00

 Vector    3  Occ=2.000000D+00  E=-1.764755D-01

 Vector    4  Occ=0.000000D+00  E= 3.469034D-03

 Vector    5  Occ=0.000000D+00  E= 2.770041D-02

 Vector    6  Occ=0.000000D+00  E= 2.770041D-02

 Vector    7  Occ=0.000000D+00  E= 3.719635D-02

 Vector    8  Occ=0.000000D+00  E= 5.475173D-02

 Vector    9  Occ=0.000000D+00  E= 5.475173D-02

 Vector   10  Occ=0.000000D+00  E= 6.461425D-02

 Vector   11  Occ=0.000000D+00  E= 1.108244D-01

 Vector   12  Occ=0.000000D+00  E= 1.188407D-01

 Vector   13  Occ=0.000000D+00  E= 1.188407D-01

 Vector   14  Occ=0.000000D+00  E= 1.509151D-01

 Vector   15  Occ=0.000000D+00  E= 1.577033D-01

 Vector   16  Occ=0.000000D+00  E= 1.588668D-01

 Vector   17  Occ=0.000000D+00  E= 1.588668D-01

 Vector   18  Occ=0.000000D+00  E= 2.177534D-01

 Vector   19  Occ=0.000000D+00  E= 2.177534D-01

 Vector   20  Occ=0.000000D+00  E= 2.351874D-01

 Vector   21  Occ=0.000000D+00  E= 2.473261D-01

 Vector   22  Occ=0.000000D+00  E= 2.473261D-01

 Vector   23  Occ=0.000000D+00  E= 2.730338D-01

 Vector   24  Occ=0.000000D+00  E= 2.730338D-01

 Vector   25  Occ=0.000000D+00  E= 3.091135D-01

 Vector   26  Occ=0.000000D+00  E= 3.509813D-01

 Vector   27  Occ=0.000000D+00  E= 3.509813D-01

 Vector   28  Occ=0.000000D+00  E= 3.974687D-01

 Vector   29  Occ=0.000000D+00  E= 4.712532D-01

 Vector   30  Occ=0.000000D+00  E= 4.712532D-01

 Vector   31  Occ=0.000000D+00  E= 4.856530D-01

 Vector   32  Occ=0.000000D+00  E= 4.856530D-01

 Vector   33  Occ=0.000000D+00  E= 5.054550D-01

       Multipole analysis of the density wrt the origin
       ------------------------------------------------

     L   x y z        total         open         nuclear
     -   - - -        -----         ----         -------
     0   0 0 0     -0.000000      0.000000      6.000000

     1   1 0 0     -0.000000      0.000000      0.000000
     1   0 1 0      0.000000      0.000000      0.000000
     1   0 0 1      0.000000      0.000000      0.000000

     2   2 0 0    -12.659986      0.000000      0.000000
     2   1 1 0      0.000000      0.000000      0.000000
     2   1 0 1     -0.000000      0.000000      0.000000
     2   0 2 0    -12.659986      0.000000      0.000000
     2   0 1 1      0.000000      0.000000      0.000000

 CCSD total energy / hartree       =       -14.928988801555514
 Total times  cpu:      745.1s     wall:      749.6s
