============================== echo of input deck ==============================
title "Li2-REMOVE"
echo
start Li2-REMOVE

memory total 24 gb

geometry  units angstrom
symmetry c1
Li  0    0    0
Li  0    0    3.34125
end

basis spherical
   * library cc-pvtz
end

scf
thresh 1.0e-10
tol2e 1.0e-10
rhf
singlet
maxiter 200
end

tce
   ccsd
   maxiter 200
   thresh 1.e-6
   2eorb
   2emet 13
   tilesize 5
   freeze virtual 56
end

#set tce:qducc T
#set tce:nactv 7
set tce:printtol 0.001

task tce energy

================================================================================

 Output coordinates in angstroms (scale by  1.889725989 to convert to a.u.)

  No.       Tag          Charge          X              Y              Z
 ---- ---------------- ---------- -------------- -------------- --------------
    1 Li                   3.0000     0.00000000     0.00000000    -1.67062500
    2 Li                   3.0000     0.00000000     0.00000000     1.67062500

         Total SCF energy =    -14.865726124912

 Vector    2  Occ=2.000000D+00  E=-2.468771D+00

 Vector    3  Occ=2.000000D+00  E=-1.690972D-01

 Vector    4  Occ=0.000000D+00  E=-1.619991D-03

 Vector    5  Occ=0.000000D+00  E= 2.782499D-02

 Vector    6  Occ=0.000000D+00  E= 2.782499D-02

 Vector    7  Occ=0.000000D+00  E= 3.533747D-02

 Vector    8  Occ=0.000000D+00  E= 5.266495D-02

 Vector    9  Occ=0.000000D+00  E= 5.266495D-02

 Vector   10  Occ=0.000000D+00  E= 6.229258D-02

 Vector   11  Occ=0.000000D+00  E= 1.115645D-01

 Vector   12  Occ=0.000000D+00  E= 1.211882D-01

 Vector   13  Occ=0.000000D+00  E= 1.211882D-01

 Vector   14  Occ=0.000000D+00  E= 1.502427D-01

 Vector   15  Occ=0.000000D+00  E= 1.511733D-01

 Vector   16  Occ=0.000000D+00  E= 1.511733D-01

 Vector   17  Occ=0.000000D+00  E= 1.624315D-01

 Vector   18  Occ=0.000000D+00  E= 2.165109D-01

 Vector   19  Occ=0.000000D+00  E= 2.179576D-01

 Vector   20  Occ=0.000000D+00  E= 2.179576D-01

 Vector   21  Occ=0.000000D+00  E= 2.361044D-01

 Vector   22  Occ=0.000000D+00  E= 2.361044D-01

 Vector   23  Occ=0.000000D+00  E= 2.644920D-01

 Vector   24  Occ=0.000000D+00  E= 2.644920D-01

 Vector   25  Occ=0.000000D+00  E= 3.028266D-01

 Vector   26  Occ=0.000000D+00  E= 3.361583D-01

 Vector   27  Occ=0.000000D+00  E= 3.361583D-01

 Vector   28  Occ=0.000000D+00  E= 4.196133D-01

 Vector   29  Occ=0.000000D+00  E= 4.502827D-01

 Vector   30  Occ=0.000000D+00  E= 4.682955D-01

 Vector   31  Occ=0.000000D+00  E= 4.682955D-01

 Vector   32  Occ=0.000000D+00  E= 4.851958D-01

 Vector   33  Occ=0.000000D+00  E= 4.851958D-01

 Vector   34  Occ=0.000000D+00  E= 5.137430D-01

       Multipole analysis of the density wrt the origin
       ------------------------------------------------

     L   x y z        total         open         nuclear
     -   - - -        -----         ----         -------
     0   0 0 0     -0.000000      0.000000      6.000000

     1   1 0 0      0.000000      0.000000      0.000000
     1   0 1 0      0.000000      0.000000      0.000000
     1   0 0 1      0.000000      0.000000      0.000000

     2   2 0 0    -13.175617      0.000000      0.000000
     2   1 1 0     -0.000000      0.000000      0.000000
     2   1 0 1      0.000000      0.000000      0.000000
     2   0 2 0    -13.175617      0.000000      0.000000
     2   0 1 1     -0.000000      0.000000      0.000000

 CCSD total energy / hartree       =       -14.869021449264528
 Total times  cpu:        2.5s     wall:        2.6s
