============================== echo of input deck ==============================
title "Li2-REMOVE"
echo
start Li2-REMOVE

memory total 24 gb

geometry  units angstrom
symmetry c1
Li  0    0    0
Li  0    0    4.0095
end

basis spherical
   * library cc-pvtz
end

scf
thresh 1.0e-10
tol2e 1.0e-10
rhf
singlet
maxiter 200
end

tce
   ccsd
   maxiter 200
   thresh 1.e-6
   2eorb
   2emet 13
   tilesize 5
   freeze virtual 56
end

#set tce:qducc T
#set tce:nactv 7
set tce:printtol 0.001

task tce energy

================================================================================

 Output coordinates in angstroms (scale by  1.889725989 to convert to a.u.)

  No.       Tag          Charge          X              Y              Z
 ---- ---------------- ---------- -------------- -------------- --------------
    1 Li                   3.0000     0.00000000     0.00000000    -2.00475000
    2 Li                   3.0000     0.00000000     0.00000000     2.00475000

         Total SCF energy =    -14.851699709421

 Vector    2  Occ=2.000000D+00  E=-2.484616D+00

 Vector    3  Occ=2.000000D+00  E=-1.583935D-01

 Vector    4  Occ=0.000000D+00  E=-1.075979D-02

 Vector    5  Occ=0.000000D+00  E= 2.742368D-02

 Vector    6  Occ=0.000000D+00  E= 2.742368D-02

 Vector    7  Occ=0.000000D+00  E= 3.252889D-02

 Vector    8  Occ=0.000000D+00  E= 4.897827D-02

 Vector    9  Occ=0.000000D+00  E= 4.897827D-02

 Vector   10  Occ=0.000000D+00  E= 5.834706D-02

 Vector   11  Occ=0.000000D+00  E= 1.123674D-01

 Vector   12  Occ=0.000000D+00  E= 1.231502D-01

 Vector   13  Occ=0.000000D+00  E= 1.231502D-01

 Vector   14  Occ=0.000000D+00  E= 1.407775D-01

 Vector   15  Occ=0.000000D+00  E= 1.407775D-01

 Vector   16  Occ=0.000000D+00  E= 1.487119D-01

 Vector   17  Occ=0.000000D+00  E= 1.603359D-01

 Vector   18  Occ=0.000000D+00  E= 2.014569D-01

 Vector   19  Occ=0.000000D+00  E= 2.185717D-01

 Vector   20  Occ=0.000000D+00  E= 2.185717D-01

 Vector   21  Occ=0.000000D+00  E= 2.206856D-01

 Vector   22  Occ=0.000000D+00  E= 2.206856D-01

 Vector   23  Occ=0.000000D+00  E= 2.514460D-01

 Vector   24  Occ=0.000000D+00  E= 2.514460D-01

 Vector   25  Occ=0.000000D+00  E= 2.860484D-01

 Vector   26  Occ=0.000000D+00  E= 3.111108D-01

 Vector   27  Occ=0.000000D+00  E= 3.111108D-01

 Vector   28  Occ=0.000000D+00  E= 3.720775D-01

 Vector   29  Occ=0.000000D+00  E= 4.567936D-01

 Vector   30  Occ=0.000000D+00  E= 4.567936D-01

 Vector   31  Occ=0.000000D+00  E= 4.755780D-01

 Vector   32  Occ=0.000000D+00  E= 4.755780D-01

 Vector   33  Occ=0.000000D+00  E= 4.963420D-01

 Vector   34  Occ=0.000000D+00  E= 5.046027D-01

       Multipole analysis of the density wrt the origin
       ------------------------------------------------

     L   x y z        total         open         nuclear
     -   - - -        -----         ----         -------
     0   0 0 0     -0.000000      0.000000      6.000000

     1   1 0 0     -0.000000      0.000000      0.000000
     1   0 1 0     -0.000000      0.000000      0.000000
     1   0 0 1      0.000000      0.000000      0.000000

     2   2 0 0    -13.962604      0.000000      0.000000
     2   1 1 0     -0.000000      0.000000      0.000000
     2   1 0 1      0.000000      0.000000      0.000000
     2   0 2 0    -13.962604      0.000000      0.000000
     2   0 1 1      0.000000      0.000000      0.000000

 CCSD total energy / hartree       =       -14.859282507352598
 Total times  cpu:        2.5s     wall:        2.6s
